<?xml version="1.0"?>
<VTKFile type="UnstructuredGrid"  version="0.1"  >
<UnstructuredGrid>
<Piece  NumberOfPoints="18732" NumberOfCells="36916">
<Points>
<DataArray  type="Float64"  NumberOfComponents="3"  format="ascii">0 0.1 0  0 0.5 0  1 0.5 0  1 0 0  0.5 0 0  0.5 0.1 0  0 0.1099999999999852 0  0 0.1199999999999629 0  0 0.1299999999999476 0  0 0.1399999999999312 0  0 0.1499999999999127 0  0 0.1599999999998833 0  0 0.1699999999998539 0  0 0.1799999999998137 0  0 0.1899999999997843 0  0 0.1999999999997549 0  0 0.2099999999997255 0  0 0.2199999999996961 0  0 0.2299999999996667 0  0 0.2399999999996373 0  0 0.2499999999996079 0  0 0.2599999999995785 0  0 0.2699999999995492 0  0 0.2799999999995197 0  0 0.2899999999994903 0  0 0.2999999999994718 0  0 0.3099999999995009 0  0 0.3199999999995257 0  0 0.3299999999995527 0  0 0.3399999999995774 0  0 0.3499999999996065 0  0 0.3599999999996314 0  0 0.3699999999996539 0  0 0.3799999999996723 0  0 0.3899999999997121 0  0 0.3999999999997305 0  0 0.4099999999997488 0  0 0.4199999999997887 0  0 0.429999999999807 0  0 0.4399999999998296 0  0 0.4499999999998653 0  0 0.4599999999998835 0  0 0.4699999999999148 0  0 0.4799999999999418 0  0 0.4899999999999601 0  0.009999999999981104 0.5 0  0.01999999999996237 0.5 0  0.02999999999994307 0.5 0  0.03999999999992186 0.5 0  0.04999999999989966 0.5 0  0.05999999999987837 0.5 0  0.06999999999986051 0.5 0  0.07999999999984518 0.5 0  0.0899999999998299 0.5 0  0.09999999999981463 0.5 0  0.1099999999997994 0.5 0  0.1199999999997832 0.5 0  0.1299999999997609 0.5 0  0.1399999999997328 0.5 0  0.1499999999997036 0.5 0  0.1599999999996745 0.5 0  0.1699999999996453 0.5 0  0.1799999999996162 0.5 0  0.189999999999587 0.5 0  0.1999999999995579 0.5 0  0.2099999999995288 0.5 0  0.2199999999994996 0.5 0  0.2299999999994704 0.5 0  0.2399999999994413 0.5 0  0.2499999999994121 0.5 0  0.259999999999383 0.5 0  0.2699999999993538 0.5 0  0.2799999999993247 0.5 0  0.2899999999992955 0.5 0  0.2999999999992664 0.5 0  0.3099999999992372 0.5 0  0.3199999999992081 0.5 0  0.329999999999179 0.5 0  0.3399999999991498 0.5 0  0.3499999999991207 0.5 0  0.3599999999990915 0.5 0  0.3699999999990624 0.5 0  0.3799999999990332 0.5 0  0.3899999999990041 0.5 0  0.3999999999989749 0.5 0  0.4099999999989458 0.5 0  0.4199999999989167 0.5 0  0.4299999999988875 0.5 0  0.4399999999988584 0.5 0  0.4499999999988292 0.5 0  0.4599999999988 0.5 0  0.4699999999987708 0.5 0  0.4799999999987418 0.5 0  0.4899999999987126 0.5 0  0.4999999999986943 0.5 0  0.5099999999987098 0.5 0  0.5199999999987361 0.5 0  0.5299999999987626 0.5 0  0.5399999999987888 0.5 0  0.5499999999988152 0.5 0  0.5599999999988415 0.5 0  0.5699999999988679 0.5 0  0.5799999999988942 0.5 0  0.5899999999989205 0.5 0  0.5999999999989468 0.5 0  0.6099999999989731 0.5 0  0.6199999999989995 0.5 0  0.6299999999990258 0.5 0  0.6399999999990521 0.5 0  0.6499999999990784 0.5 0  0.6599999999991049 0.5 0  0.6699999999991312 0.5 0  0.6799999999991574 0.5 0  0.6899999999991837 0.5 0  0.6999999999992101 0.5 0  0.7099999999992365 0.5 0  0.7199999999992628 0.5 0  0.7299999999992892 0.5 0  0.7399999999993154 0.5 0  0.7499999999993417 0.5 0  0.7599999999993681 0.5 0  0.7699999999993945 0.5 0  0.7799999999994207 0.5 0  0.789999999999447 0.5 0  0.7999999999994734 0.5 0  0.8099999999994998 0.5 0  0.8199999999995261 0.5 0  0.8299999999995523 0.5 0  0.8399999999995788 0.5 0  0.8499999999996051 0.5 0  0.8599999999996314 0.5 0  0.8699999999996577 0.5 0  0.8799999999996841 0.5 0  0.8899999999997104 0.5 0  0.8999999999997367 0.5 0  0.9099999999997631 0.5 0  0.9199999999997894 0.5 0  0.9299999999998156 0.5 0  0.939999999999842 0.5 0  0.9499999999998684 0.5 0  0.9599999999998947 0.5 0  0.969999999999921 0.5 0  0.9799999999999475 0.5 0  0.9899999999999737 0.5 0  1 0.4899999999999584 0  1 0.4799999999999167 0  1 0.4699999999998751 0  1 0.4599999999998334 0  1 0.4499999999997917 0  1 0.439999999999754 0  1 0.4299999999997917 0  1 0.4199999999998611 0  1 0.4099999999999305 0  1 0.3999999999999999 0  1 0.3900000000000692 0  1 0.3800000000001386 0  1 0.3700000000002081 0  1 0.3600000000002774 0  1 0.3500000000003468 0  1 0.3400000000004162 0  1 0.3300000000004855 0  1 0.3200000000005549 0  1 0.3100000000006242 0  1 0.3000000000006936 0  1 0.2900000000007629 0  1 0.2800000000008322 0  1 0.2700000000009016 0  1 0.260000000000971 0  1 0.2500000000010295 0  1 0.2400000000009987 0  1 0.230000000000957 0  1 0.2200000000009155 0  1 0.2100000000008739 0  1 0.2000000000008322 0  1 0.1900000000007906 0  1 0.180000000000749 0  1 0.1700000000007074 0  1 0.1600000000006658 0  1 0.1500000000006242 0  1 0.1400000000005825 0  1 0.130000000000541 0  1 0.1200000000004994 0  1 0.1100000000004577 0  1 0.1000000000004161 0  1 0.0900000000003745 0  1 0.08000000000033292 0  1 0.07000000000029127 0  1 0.06000000000024969 0  1 0.05000000000020804 0  1 0.04000000000016646 0  1 0.03000000000012482 0  1 0.02000000000008323 0  1 0.01000000000004164 0  0.9900954956325163 0 0  0.980367568626645 0 0  0.9708130711347054 0 0  0.9614289120718428 0 0  0.9522120590310177 0 0  0.9431595216191426 0 0  0.9342683743930028 0 0  0.9255357355753656 0 0  0.9169587897296348 0 0  0.9085347495563204 0 0  0.9002608956221804 0 0  0.8921345497685604 0 0  0.8841530802817585 0 0  0.8763139069037676 0 0  0.8686144902262546 0 0  0.8610523397256663 0 0  0.8536250076365065 0 0  0.8463300913768264 0 0  0.8391652290973177 0 0  0.832128103878915 0 0  0.8252164365864447 0 0  0.8184279907571873 0 0  0.8117605706226458 0 0  0.8052120187502619 0 0  0.7987802141123883 0 0  0.7924630769567624 0 0  0.7862585614419753 0 0  0.7801646621232392 0 0  0.7741794046888595 0 0  0.7683008533160955 0 0  0.7625271056951655 0 0  0.7568562930262577 0 0  0.7512865791128792 0 0  0.7458161646315629 0 0  0.7404432762433806 0 0  0.7351661749966667 0 0  0.7299831558225176 0 0  0.7248925413036414 0 0  0.7198926814181636 0 0  0.7149819597408671 0 0  0.7101587869190995 0 0  0.7054216025961266 0 0  0.7007688730158579 0 0  0.6961990928499593 0 0  0.6917107813635848 0 0  0.6873024910318083 0 0  0.6829727906473686 0 0  0.6787202808085788 0 0  0.6745435847214847 0 0  0.6704413512910385 0 0  0.6664122533423875 0 0  0.6624549870980082 0 0  0.6585682705866449 0 0  0.6547508474445064 0 0  0.6510014813769296 0 0  0.6473189601082405 0 0  0.6437020905712422 0 0  0.6401497034253665 0 0  0.6366606480131236 0 0  0.6332337964093215 0 0  0.6298680391627915 0 0  0.6265622865453226 0 0  0.6233154694936714 0 0  0.6201265371895686 0 0  0.6169944574079157 0 0  0.6139182163773007 0 0  0.6108968192105567 0 0  0.6079292881755922 0 0  0.6050146619169308 0 0  0.6021519986231985 0 0  0.5993403706975164 0 0  0.5965788691620362 0 0  0.5938665996039207 0 0  0.5912026852058825 0 0  0.5885862627802863 0 0  0.5860164867523665 0 0  0.583492524261378 0 0  0.5810135601241606 0 0  0.5785787904349892 0 0  0.5761874289538009 0 0  0.573838700457921 0 0  0.5715318446101068 0 0  0.5692661169765197 0 0  0.5670407822489461 0 0  0.5648551211007428 0 0  0.5627084262379562 0 0  0.5606000025767945 0 0  0.5585291683441684 0 0  0.5564952533179301 0 0  0.554497599081276 0 0  0.5525355590134238 0 0  0.5506084988481361 0 0  0.5487157943394201 0 0  0.546856833076091 0 0  0.5450310136356363 0 0  0.5432377452575974 0 0  0.5414764472612743 0 0  0.5397465499425949 0 0  0.5380474935827977 0 0  0.5363787278725271 0 0  0.5347397134193393 0 0  0.5331299193026948 0 0  0.5315488249440019 0 0  0.5299959182827847 0 0  0.5284706970931252 0 0  0.5269726678870525 0 0  0.5255013455460902 0 0  0.5240562542236749 0 0  0.5226369260719276 0 0  0.521242901699623 0 0  0.5198737304602967 0 0  0.5185289687558905 0 0  0.5172081816109999 0 0  0.5159109416665457 0 0  0.5146368290299996 0 0  0.5133854314218915 0 0  0.5121563439526085 0 0  0.5109491687692678 0 0  0.5097635149672463 0 0  0.508598999584668 0 0  0.5074552450759913 0 0  0.5063318811655 0 0  0.5052285454606962 0 0  0.5041448798033611 0 0  0.5030805335900932 0 0  0.502035162791977 0 0  0.5010084290625925 0 0  0.5 0.0009999999999981809 0  0.5 0.001999999999996395 0  0.5 0.002999999999994538 0  0.5 0.003999999999992528 0  0.5 0.004999999999990308 0  0.5 0.005999999999988319 0  0.5 0.006999999999986697 0  0.5 0.007999999999985378 0  0.5 0.008999999999984066 0  0.5 0.009999999999982495 0  0.5 0.01099999999998126 0  0.5 0.01199999999997957 0  0.5 0.01299999999997735 0  0.5 0.01399999999997461 0  0.5 0.01499999999997173 0  0.5 0.01599999999996886 0  0.5 0.01699999999996599 0  0.5 0.0179999999999631 0  0.5 0.01899999999995935 0  0.5 0.01999999999995603 0  0.5 0.02099999999995315 0  0.5 0.02199999999995028 0  0.5 0.02299999999994741 0  0.5 0.02399999999994454 0  0.5 0.02499999999994167 0  0.5 0.0259999999999388 0  0.5 0.02699999999993593 0  0.5 0.02799999999993306 0  0.5 0.02899999999993018 0  0.5 0.02999999999992731 0  0.5 0.03099999999992445 0  0.5 0.03199999999992158 0  0.5 0.03299999999991871 0  0.5 0.03399999999991584 0  0.5 0.03499999999991297 0  0.5 0.0359999999999101 0  0.5 0.03699999999990673 0  0.5 0.03799999999990213 0  0.5 0.03899999999989877 0  0.5 0.0399999999998959 0  0.5 0.04099999999989302 0  0.5 0.04199999999989015 0  0.5 0.04299999999988729 0  0.5 0.04399999999988442 0  0.5 0.04499999999988154 0  0.5 0.04599999999987867 0  0.5 0.04699999999987581 0  0.5 0.04799999999987294 0  0.5 0.04899999999987006 0  0.5 0.04999999999986855 0  0.5 0.05099999999986953 0  0.5 0.05199999999987262 0  0.5 0.05299999999987555 0  0.5 0.05399999999987788 0  0.5 0.05499999999988021 0  0.5 0.05599999999988347 0  0.5 0.05699999999988623 0  0.5 0.05799999999988856 0  0.5 0.0589999999998909 0  0.5 0.0599999999998943 0  0.5 0.06099999999989691 0  0.5 0.06199999999989924 0  0.5 0.06299999999990157 0  0.5 0.06399999999990517 0  0.5 0.06499999999990869 0  0.5 0.06599999999990928 0  0.5 0.06699999999991195 0  0.5 0.067999999999916 0  0.5 0.0689999999999192 0  0.5 0.06999999999991981 0  0.5 0.07099999999992278 0  0.5 0.07199999999992684 0  0.5 0.07299999999992972 0  0.5 0.07399999999993032 0 
[...]
<PointData  Scalars="f_26"> 
<DataArray  type="Float64"  Name="f_26"  format="ascii">-3.0373110607847715e-02  1.8222313349280592e-01  1.8222309037431644e-01  -3.0373091086656031e-02  -3.0373101524803874e-02  -3.0372394089867038e-02  -3.0224974697076159e-02  -2.9782226089631474e-02  -2.9047232580455874e-02  -2.8022335724393652e-02  -2.6709882484934038e-02  -2.5112190441369978e-02  -2.3231570598093942e-02  -2.1070362716313119e-02  -1.8630878112930613e-02  -1.5915434293272149e-02  -1.2926353305796223e-02  -9.6659578178289410e-03  -6.1365819225670812e-03  -2.3405315093972079e-03  1.7198405030363195e-03  6.0421986355696684e-03  1.0624208446382002e-02  1.5463526419790697e-02  2.0557786294787224e-02  2.5904645306114641e-02  3.1501741946869423e-02  3.7346710566053883e-02  4.3437186578810925e-02  4.9770786587286044e-02  5.6345135648112388e-02  6.3157857409255502e-02  7.0206550531056358e-02  7.7488830916626117e-02  8.5002308752696223e-02  9.2744584926766016e-02  1.0071326052042266e-01  1.0890592868534614e-01  1.1732019294026817e-01  1.2595364185194879e-01  1.3480388326965267e-01  1.4386850964425235e-01  1.5314512325071108e-01  1.6263134938054258e-01  1.7232480264643585e-01  1.8222311957197426e-01  1.8222311618215095e-01  1.8222314901439149e-01  1.8222311730392685e-01  1.8222313907749460e-01  1.8222311782667536e-01  1.8222312373646726e-01  1.8222312223675560e-01  1.8222313280834371e-01  1.8222312237420482e-01  1.8222313287904165e-01  1.8222312369761925e-01  1.8222312919315065e-01  1.8222312360971368e-01  1.8222312651009706e-01  1.8222312670629748e-01  1.8222312381305003e-01  1.8222313006677346e-01  1.8222312193266224e-01  1.8222312110309224e-01  1.8222312171592264e-01  1.8222314092094039e-01  1.8222311975640956e-01  1.8222312633182766e-01  1.8222312738263050e-01  1.8222312982046165e-01  1.8222313180043120e-01  1.8222312074777497e-01  1.8222312232542012e-01  1.8222312745042621e-01  1.8222313014684427e-01  1.8222312442255550e-01  1.8222312648603112e-01  1.8222312174496044e-01  1.8222314979624823e-01  1.8222311777026454e-01  1.8222312888918801e-01  1.8222311781204270e-01  1.8222314342612314e-01  1.8222312018032161e-01  1.8222312242645339e-01  1.8222312728096224e-01  1.8222311667884911e-01  1.8222313274676297e-01  1.8222313547709565e-01  1.8222311243578601e-01  1.8222313364831141e-01  1.8222312413715663e-01  1.8222311986553691e-01  1.8222312723042589e-01  1.8222312607549382e-01  1.8222312787130432e-01  1.8222312511184194e-01  1.8222311670498523e-01  1.8222311907860117e-01  1.8222312712311450e-01  1.8222311336265970e-01  1.8222312424437270e-01  1.8222311269518210e-01  1.8222312027208737e-01  1.8222312694760889e-01  1.8222313106289822e-01  1.8222313220354680e-01  1.8222312070666505e-01  1.8222310339577058e-01  1.8222311784716524e-01  1.8222311620130655e-01  1.8222312469723242e-01  1.8222311518366641e-01  1.8222311218162460e-01  1.8222311842143959e-01  1.8222311140761005e-01  1.8222311269139513e-01  1.8222312470085850e-01  1.8222310777005676e-01  1.8222311506423258e-01  1.8222310988019691e-01  1.8222311878360195e-01  1.8222311953955656e-01  1.8222308856099584e-01  1.8222311951339598e-01  1.8222311398556265e-01  1.8222310793248084e-01  1.8222311852667633e-01  1.8222309951542862e-01  1.8222311935051289e-01  1.8222311393417134e-01  1.8222311596482327e-01  1.8222311258647964e-01  1.8222309615768689e-01  1.8222312298947244e-01  1.8222311363482632e-01  1.8222312158148102e-01  1.8222308728018285e-01  1.8222311962084978e-01  1.8222310174920867e-01  1.8222311477036673e-01  1.8222311466594171e-01  1.8222311391933727e-01  1.7236976750885982e-01  1.6280571329663615e-01  1.5352604554236224e-01  1.4452641689090051e-01  1.3580268309065432e-01  1.2735085393736165e-01  1.1916704104457479e-01  1.1124743240524573e-01  1.0358827977630491e-01  9.6185892256413205e-02  8.9036614184928531e-02  8.2136843798479728e-02  7.5482987044529604e-02  6.9071477293696185e-02  6.2898783259924790e-02  5.6961378616053347e-02  5.1255740271029179e-02  4.5778358654641929e-02  4.0525712185361315e-02  3.5494294185206297e-02  3.0680580738286025e-02  2.6081041238500070e-02  2.1692139235808153e-02  1.7510320875267490e-02  1.3532019741807616e-02  9.7536620532299306e-03  6.1716224092608733e-03  2.7823125416885975e-03  -4.1789016835759823e-04  -3.4326449659798529e-03  -6.2656001800873188e-03  -8.9204127908295884e-03  -1.1400764803958746e-02  -1.3710338678466464e-02  -1.5852796861192783e-02  -1.7831830596418814e-02  -1.9651094967091977e-02  -2.1314248315868624e-02  -2.2824928205305670e-02  -2.4186733406274554e-02  -2.5403226934077490e-02  -2.6477961958041727e-02  -2.7414421192037089e-02  -2.8216027586358557e-02  -2.8886129402335606e-02  -2.9427997678571793e-02  -2.9844794361692625e-02  -3.0139490018021273e-02  -3.0314851564080172e-02  -3.0373096008433628e-02  -3.0373092813971454e-02  -3.0373099781452462e-02  -3.0373095067936211e-02  -3.0373097939038297e-02  -3.0373094197486052e-02  -3.0373096927643967e-02  -3.0373096766975815e-02  -3.0373095934285516e-02  -3.0373091859360993e-02  -3.0373099622475613e-02  -3.0373098562217732e-02  -3.0373097489540590e-02  -3.0373095104928721e-02  -3.0373100216971378e-02  -3.0373097203932217e-02  -3.0373095591896764e-02  -3.0373095797896828e-02  -3.0373099504187023e-02  -3.0373099733549659e-02  -3.0373100587373483e-02  -3.0373097691027556e-02  -3.0373097863675518e-02  -3.0373099364643549e-02  -3.0373097288217833e-02  -3.0373100732425683e-02  -3.0373096291379215e-02  -3.0373102054435299e-02  -3.0373101177750824e-02  -3.0373098683617109e-02  -3.0373100551711545e-02  -3.0373099236611599e-02  -3.0373099576063094e-02  -3.0373100508754216e-02  -3.0373099926502990e-02  -3.0373097284794127e-02  -3.0373101544090175e-02  -3.0373101280349573e-02  -3.0373100583271726e-02  -3.0373098817959607e-02  -3.0373100256086760e-02  -3.0373101537422932e-02  -3.0373096394189329e-02  -3.0373099793939626e-02  -3.0373098083114759e-02  -3.0373100692745417e-02  -3.0373100037887343e-02  -3.0373100939578603e-02  -3.0373098866977991e-02  -3.0373099640691657e-02  -3.0373100524432095e-02  -3.0373101017530688e-02  -3.0373099873658133e-02  -3.0373097872937991e-02  -3.0373096787238426e-02  -3.0373100101225046e-02  -3.0373101765417340e-02  -3.0373100126273804e-02  -3.0373100990242662e-02  -3.0373099835323349e-02  -3.0373098147056729e-02  -3.0373101329430885e-02  -3.0373100891667049e-02  -3.0373099229485820e-02  -3.0373101445964282e-02  -3.0373096959130232e-02  -3.0373101268245946e-02  -3.0373099914902488e-02  -3.0373101407053096e-02  -3.0373099955155105e-02  -3.0373101022304238e-02  -3.0373099919095425e-02  -3.0373100567734530e-02  -3.0373101147463409e-02  -3.0373099824241526e-02  -3.0373100417740061e-02  -3.0373101068053073e-02  -3.0373101505342909e-02  -3.0373099484041030e-02  -3.0373101347177568e-02  -3.0373099947817707e-02  -3.0373101374974606e-02  -3.0373100976760693e-02  -3.0373100770428731e-02  -3.0373101119408247e-02  -3.0373101054160901e-02  -3.0373101545149783e-02  -3.0373099479140301e-02  -3.0373101389772537e-02  -3.0373101061837441e-02  -3.0373101406902029e-02  -3.0373100256091877e-02  -3.0373101373334054e-02  -3.0373101216128698e-02  -3.0373101315163072e-02  -3.0373101320835937e-02  -3.0373101042199518e-02  -3.0373101203963811e-02  -3.0373101315685904e-02  -3.0373101255209051e-02  -3.0373101342314277e-02  -3.0373101337522662e-02  -3.0373101419034782e-02  -3.0373101433106557e-02  -3.0373101439575455e-02  -3.0373101357304859e-02  -3.0373101501239362e-02  -3.0373101444527793e-02  -3.0373101442341063e-02  -3.0373101539867546e-02  -3.0373101442289548e-02  -3.0373101549885938e-02  -3.0373101483359539e-02  -3.0373101512389443e-02  -3.0373101443635045e-02  -3.0373101506454038e-02  -3.0373101495670244e-02  -3.0373101522420232e-02  -3.0373101516502122e-02  -3.0373101536445922e-02  -3.0373101540796924e-02  -3.0373101526340006e-02  -3.0373101531833046e-02  -3.0373101537797723e-02  -3.0373101536305257e-02  -3.0373101532571826e-02  -3.0373101531846268e-02  -3.0373101531183708e-02  -3.0373101529124515e-02  -3.0373101557177744e-02  -3.0373101531763577e-02  -3.0373101580619073e-02  -3.0373101513848904e-02  -3.0373101565076038e-02  -3.0373101531946563e-02  -3.0373101537135901e-02  -3.0373101545054286e-02  -3.0373101564104676e-02  -3.0373101548720669e-02  -3.0373101571409874e-02  -3.0373101533446085e-02  -3.0373101537370741e-02  -3.0373101608027819e-02  -3.0373101562158736e-02  -3.0373101485702964e-02  -3.0373101542570377e-02  -3.0373101596575552e-02  -3.0373101473687367e-02  -3.0373101590967622e-02  -3.0373101564535564e-02  -3.0373101581585196e-02  -3.0373101559568717e-02  -3.0373101514260127e-02  -3.0373101591974629e-02  -3.0373101595145769e-02  -3.0373101575267767e-02  -3.0373101614524885e-02  -3.0373101487090676e-02  -3.0373101622593952e-02  -3.0373101606493924e-02  -3.0373101585168094e-02  -3.0373101629651435e-02  -3.0373101528348434e-02  -3.0373101651617836e-02  -3.0373101637571859e-02  -3.0373101659574051e-02  -3.0373101606552180e-02  -3.0373101635776167e-02  -3.0373101645879832e-02  -3.0373101655382338e-02  -3.0373101667995325e-02  -3.0373101757467984e-02  -3.0373101551356439e-02  -3.0373101636511919e-02  -3.0373101707670404e-02  -3.0373101641271605e-02  -3.0373101773910366e-02  -3.0373101772885751e-02  -3.0373101736250435e-02  -3.0373101772272666e-02  -3.0373101814459239e-02  -3.0373101864209891e-02  -3.0373101592787246e-02  -3.0373101939362462e-02  -3.0373101623642977e-02  -3.0373101976056444e-02  -3.0373101966900254e-02  -3.0373101525873091e-02  -3.0373102233065281e-02  -3.0373101607911717e-02  -3.0373102142024124e-02  -3.0373101655762458e-02  -3.0373102108806446e-02  -3.0373101983563845e-02  -3.0373102101889777e-02  -3.0373102146454993e-02  -3.0373102202397771e-02  -3.0373101908021033e-02  -3.0373102238409964e-02  -3.0373102096489139e-02  -3.0373102263058709e-02  -3.0373102428702947e-02  -3.0373102072765886e-02  -3.0373102304384621e-02  -3.0373102604362087e-02  -3.0373102680480536e-02  -3.0373102561249851e-02  -3.0373102650958887e-02  -3.0373102751262142e-02  -3.0373103115736891e-02  -3.0373102102123486e-02  -3.0373103176299390e-02  -3.0373103288000917e-02  -3.0373103649629821e-02  -3.0373103793262763e-02  -3.0373104243907708e-02  -3.0373102110296632e-02  -3.0373104992101298e-02  -3.0373105342007631e-02  -3.0373105598655230e-02  -3.0373106988052342e-02  -3.0373103328734347e-02  -3.0373110649125203e-02  -3.0373109408613624e-02  -3.0373083063789812e-02  -3.0373261259793425e-02  -3.0373225974423431e-02  -3.0373072272281854e-02  -3.0373098227553311e-02  -3.0373099331614757e-02  -3.0373098371629496e-02  -3.0373100673315948e-02  -3.0373097945911962e-02  -3.0373099761924944e-02  -3.0373098371211511e-02  -3.0373098592453535e-02  -3.0373099497279787e-02  -3.0373099367945335e-02  -3.0373098806550973e-02  -3.0373099361592805e-02  -3.0373099170726430e-02  -3.0373099588730579e-02  -3.0373099012146940e-02  -3.0373098870530569e-02  -3.0373099621603269e-02  -3.0373098749112298e-02  -3.0373099167252934e-02  -3.0373099625420896e-02  -3.0373099200829135e-02  -3.0373099844957844e-02  -3.0373099320207275e-02  -3.0373099936594251e-02  -3.0373099327351365e-02  -3.0373099500468643e-02  -3.0373099679596016e-02  -3.0373099576010153e-02  -3.0373099808492364e-02  -3.0373099432653136e-02  -3.0373099612862230e-02  -3.0373099632806946e-02  -3.0373099938837786e-02  -3.0373099167072821e-02  -3.0373099835244003e-02  -3.0373099944182701e-02  -3.0373099600426400e-02  -3.0373099715246897e-02  -3.0373099827800319e-02  -3.0373099693823680e-02  -3.0373099671521270e-02  -3.0373099682672672e-02  -3.0373099736655289e-02  -3.0373099901830389e-02  -3.0373099958041622e-02  -3.0373099988397927e-02  -3.0373099795929639e-02  -3.0373099815963631e-02  -3.0373099847408290e-02  -3.0373099847261869e-02  -3.0373100089311288e-02  -3.0373099616759568e-02  -3.0373099714179248e-02  -3.0373100018309895e-02  -3.0373099982461977e-02  -3.0373099857037816e-02  -3.0373100212893103e-02  -3.0373100012841311e-02  -3.0373099891512496e-02  -3.0373100008001402e-02  -3.0373100056408489e-02  -3.0373099989843794e-02  -3.0373100010469729e-02  -3.0373100341979514e-02  -3.0373100225295806e-02  -3.0373100329600614e-02  -3.0373099933570107e-02  -3.0373100301092006e-02  -3.0373100031810738e-02  -3.0373100035999790e-02  -3.0373100119835697e-02  -3.0373100059661696e-02  -3.0373100000479852e-02  -3.0373100911623749e-02  -3.0373099717455953e-02  -3.0373100401201707e-02  -3.0373100004999765e-02  -3.0373100917346081e-02  -3.0373100045319040e-02  -3.0373100228996325e-02  -3.0373100195195703e-02  -3.0373100025809556e-02  -3.0373101163138228e-02  -3.0373100797395476e-02  -3.0373100405167115e-02  -3.0373100082254786e-02  -3.0373100318019167e-02  -3.0373100538871808e-02  -3.0373100677287265e-02  -3.0373100704322888e-02  -3.0373100021372310e-02  -3.0373102452887515e-02  -3.0373099865298039e-02  -3.0373099944208878e-02  -3.0373102907222525e-02  -3.0373100453552699e-02  -3.0373100489330802e-02  -3.0373101780370310e-02  -3.0373101005661748e-02  -3.0373099836049432e-02  -3.0373102475113066e-02  -3.0373101523872147e-02  -3.0373100428887592e-02  -3.0373100283322650e-02  -3.0373103741568479e-02  -3.0373101649331154e-02  -3.0373099498064691e-02  -3.0373107401773711e-02  -3.0373099782466169e-02  -3.0373101422030643e-02  -3.0373103481234745e-02  -3.0373100310636045e-02  -3.0373105337360980e-02  -3.0373098725813293e-02  -3.0373110845470008e-02  -3.0373100052990445e-02  -3.0373099234849498e-02  -3.0373110743209874e-02  -3.0373101028728651e-02  -3.0373101845288960e-02  -3.0373102198084100e-02  -3.0373103541143538e-02  -3.0373099939950257e-02  -3.0373112372914995e-02  -3.0373100472820706e-02  9.3686601398407301e-03  -2.7640951151792610e-02  2.8146366791966974e-02  -3.0240670333891204e-02  2.4904551366996493e-02  -1.3679077432570658e-02  -1.0600005471331090e-02  -2.9286143402628053e-02  -2.5435954117698119e-02  -2.3218501081099231e-02  -1.8808917735476209e-02  -3.0411112529225879e-02  -2.2925221910398152e-02  -3.0383816031281895e-02  -2.7854501289936801e-02  2.1140429035783276e-03  -1.6354972901101310e-02  -1.8142325016463727e-02  -2.8068375501942560e-02  -3.0247853126808992e-02  6.3229436205777447e-03  -2.8460315890811636e-02  7.3788687486511628e-02  -2.9944579367444168e-02  3.2780242145227977e-02  -2.8928810453066986e-02  -2.5557318382944921e-02  -3.0383851518392513e-02  -1.7589729885546992e-02  3.5079300009033441e-02  -5.7088345221413270e-03  7.5211224617936709e-02  -3.0400527190907311e-02  7.2001561345037240e-02  -2.8587032662847223e-02  -3.0388629607994207e-02  -2.1081331162930334e-02  -2.9536575934585974e-02  9.0668845448564919e-02  -3.0072001896705888e-02  -2.5453585460609766e-02  -2.2587460448746290e-02  -2.6046395581200456e-02  -6.5589733654810925e-03  -2.6666245169846232e-02  9.0313485024646728e-02  -4.8378903783370042e-03  2.8475664943018387e-02  -3.0379119679726421e-02  -2.1273745039104095e-02  -3.0072698471320155e-02  -1.1837212411988842e-02  -2.8755190854252346e-02  -3.0386429408276901e-02  -3.0390414382806423e-02  -2.9082265833158864e-02  -2.9622916114598358e-02  3.9827607443010081e-03  1.8458592069234454e-02  -2.3171714187930494e-02  9.0148341919864691e-02  4.7564778930358168e-02  -3.0003766643254423e-02  -2.8985440351631756e-02  3.9143204282570176e-02  4.5902959115704557e-03  -2.9760328469796250e-02  -1.9214760105669623e-02  -3.0390377655753871e-02  3.7311991820647497e-03  -3.0340300126590582e-02  -2.5131898100183344e-02  -3.0361089776281758e-02  -2.9955204993098620e-02  -1.0553102089790082e-02  -2.7508899979323782e-02  -3.0374782984587890e-02  -8.5426424533374668e-04  3.1002090695834379e-02  -1.9959673353492972e-02  -2.6500683608244740e-02  -2.9808058338992402e-02  8.1396622602016508e-02  -2.8509621947845922e-02  -2.6317701245448709e-02  -3.0390914540912022e-02  5.9317681667295412e-03  -1.8556843935394571e-02  -3.1601285127272928e-03  1.0503074944449205e-01  1.1009500420978580e-01  5.0472693545726824e-02  -3.0377778162136104e-02  -2.9122723753064461e-02  -2.8019262258861193e-02  4.1058221809606450e-02  -2.8711244620757043e-02  -2.7730124468848909e-02  6.5167076982112951e-02  -1.2458940252726411e-02  1.0703808862226320e-01  -3.0384120165666759e-02  -2.9868865431641516e-02  -1.9700739580875200e-02  7.6296499305217045e-03  -2.7178666068139318e-02  -3.0284882595018950e-02  -3.0254387881508849e-02  7.8591540452357569e-02  -3.0336479743754127e-02  -1.5501390784794707e-02  4.4861545781571033e-02  1.3821606110328948e-02  -3.0381618122755558e-02  -5.1273974245582641e-03  -3.0388958959911592e-02  -1.9568509301026781e-02  -2.9891794406018364e-02  1.6398927315613307e-02  -3.0084632244007897e-02  -2.6080929166790199e-02  4.9184345189367200e-02  -8.9478162004942817e-03  4.3511046452980283e-03  -2.5544915304917263e-02  -2.4432391329895140e-02  -1.5213901557398449e-02  -1.5727797220803873e-02  -2.7272217450526239e-02  2.9390589511829813e-02  -2.9825842316451072e-02  1.2139948766635857e-01  1.1631273951579688e-01  -3.0327365637296440e-02  -3.0404254228841285e-02  -3.0381147390494127e-02  6.0558112190337132e-02  -2.4596072825457543e-02  -3.0156118663616872e-02  -3.0379121655584908e-02  -3.0118934397154205e-02  -2.5361141181107383e-02  -3.0304007437364732e-02  -2.9852377804956705e-02  -3.0263796080430626e-02  -2.9372816971833707e-02  9.0501895774265859e-03  -2.5715234069626287e-02  -2.9821696138933089e-02  4.2156591184247600e-05  -3.0376989265982601e-02  -3.0379446005825008e-02  -3.0397768221881959e-02  -2.8685169965333115e-02  -2.8707371584305755e-02  1.2396678845437720e-01  -3.0408819153582383e-02  3.2011949616681988e-02  1.2526216034899812e-01  -2.9499421950583072e-02  5.6182396802834815e-02  -2.9177046861073426e-02  8.9165161330917609e-03  9.3165305648413507e-03  -1.9529562063200341e-02  6.8647617000213240e-02  1.2322922734046846e-01  -2.9598383360077050e-02  -2.0482421205408434e-02  -2.3600876449743111e-02  -6.6479485160036390e-03  -1.8721858594392640e-02  -3.0019433836346476e-02  -6.2765387648776759e-03  8.7011926015183649e-02  -2.5101396645508610e-02  -2.5953760774996813e-02  -2.6250175518145832e-02  -2.9251653741451566e-02  -1.2489637971469176e-02  -2.6553104315513745e-02  -1.7701480264194894e-02  -2.9409730620787257e-02  -2.7424770081604374e-02  -2.8619521114771975e-02  -2.7975022907432402e-02  -7.8644784998965142e-03  -2.9204838130217202e-02  -3.0402592173311687e-02  -3.0376956676243135e-02  -2.2198014802126912e-02  -3.0008573593090428e-02  1.2523585806852977e-01  -2.1979198006370985e-02  -2.4844887431657858e-02  -2.9493505452655736e-02  5.6436606079818836e-03  -3.0374511897715117e-02  1.2711245009673919e-01  2.1966255360317152e-02  -3.0405778485540613e-02  -2.8987656149367852e-02  -3.0373265932308737e-02  -3.0346165862742611e-02  -3.0379337384338897e-02  -3.0407694176516818e-02  1.2673315201438562e-01  -9.7762006610808781e-03  -2.0920505433257242e-02  -2.9579710929811740e-02  1.5845613369676624e-02  -2.7776236241655199e-02  -2.2678706067810372e-02  6.1935901088657250e-02  -3.0390358910847692e-02  1.2975960661659361e-01  1.3322096364086469e-03  1.2836277957312828e-01  -2.3971807713363796e-02  -1.9447231515110488e-02  -1.5030546680336760e-02  -2.4954391010287836e-02  1.9809395869073047e-02  -3.0294884643272273e-02  4.5734052339249820e-02  2.6184131045060347e-02  -3.0375241610060309e-02  -2.0244665655154551e-02  -1.6654076384964280e-02  -1.4615246687720343e-02  1.6397416888023490e-02  -8.8937466121189451e-03  3.0565012207344072e-02  -1.6527602733132730e-02  -2.8151573702254067e-02  -3.0191382680858594e-02  3.1763778137208758e-02  -2.8462926703620188e-03  -3.0392990461570461e-02  -3.0234311461240664e-02  -3.0165393209918442e-02  -2.6116647459367447e-02  7.4697909450519309e-02  -2.9963200476435973e-02  -2.6533815794137026e-02  -1.0964128254832371e-02  -7.2115120911046618e-03  -3.0254362002632120e-02  2.2356601757612424e-02  2.3760973703366953e-02  -2.8433879101123008e-02  3.1963063558914762e-02  -3.0217166279718655e-02  -2.7303254449758868e-02  -1.6336700873285863e-02  -3.0369925785678580e-02  -2.7179257848491047e-02  6.8225103634193845e-02  -2.9936387204808190e-02  -1.0392408232080